
Host: laptop

Timers On : Fri Oct 13 18:03:32 2023
Timers Off: Fri Oct 13 18:03:50 2023

Wall Time:       17.26 seconds

                                                       Time (seconds)
Module                                       User      System        Wall        Calls
DFH: sparsity prep                  :      0.233u      0.117s      0.209w      5 calls
Libint2ERI::Libint2ERI              :      9.550u      1.933s      1.888w     73 calls
DFH: initialize()                   :      1.583u      0.217s      0.339w      5 calls
DFH: AO Construction                :      0.150u      0.000s      0.025w      5 calls
DFH: AO-Met. Contraction            :      0.000u      0.000s      0.004w      5 calls
HF: Form core H                     :      0.250u      0.050s      0.049w      5 calls
HF: Form S/X                        :      0.017u      0.000s      0.004w      5 calls
HF: Guess                           :      2.550u      0.183s      0.409w      5 calls
SAD Guess                           :      2.433u      0.183s      0.393w      2 calls
HF: Form G                          :     22.017u      4.167s      3.927w     72 calls
JK: D                               :      0.000u      0.000s      0.002w     72 calls
JK: USO2AO                          :      0.067u      0.000s      0.012w     72 calls
JK: JK                              :     21.800u      4.167s      3.899w     72 calls
DFH: compute_JK()                   :      0.083u      0.000s      0.016w     45 calls
DFH: Grabbing AOs                   :      0.000u      0.000s      0.000w     45 calls
DFH: compute_J                      :      0.000u      0.000s      0.005w     45 calls
DFH: compute_K                      :      0.050u      0.000s      0.007w     45 calls
build_JK_matrices()                 :      2.900u      0.017s      0.449w     27 calls
JK: AO2USO                          :      0.117u      0.000s      0.008w     72 calls
HF: Form F                          :      0.033u      0.000s      0.003w     72 calls
HF: Form D                          :      0.000u      0.000s      0.002w     72 calls
HF: DIIS                            :      5.850u      0.250s      1.076w     70 calls
HF: Form C                          :      0.517u      0.000s      0.090w     70 calls
Grad: V T Perturb                   :      0.033u      0.000s      0.009w      4 calls
Grad: S                             :      0.017u      0.017s      0.004w      4 calls
Grad: JK                            :      6.133u      1.000s      1.105w      4 calls
Grad: XC                            :      0.000u      0.000s      0.000w      4 calls

--------------------------------------------------------------------------------------
DFH: sparsity prep                  :      0.233u      0.117s      0.209w      5 calls
| Libint2ERI::Libint2ERI            :      0.133u      0.117s      0.158w      5 calls
DFH: initialize()                   :      1.583u      0.217s      0.339w      5 calls
| Libint2ERI::Libint2ERI            :      0.650u      0.100s      0.122w     25 calls
| DFH: AO Construction              :      0.150u      0.000s      0.025w      5 calls
| DFH: AO-Met. Contraction          :      0.000u      0.000s      0.004w      5 calls
HF: Form core H                     :      0.250u      0.050s      0.049w      5 calls
HF: Form S/X                        :      0.017u      0.000s      0.004w      5 calls
HF: Guess                           :      2.550u      0.183s      0.409w      5 calls
| SAD Guess                         :      2.433u      0.183s      0.393w      2 calls
HF: Form G                          :     22.017u      4.167s      3.927w     72 calls
| JK: D                             :      0.000u      0.000s      0.002w     72 calls
| JK: USO2AO                        :      0.067u      0.000s      0.012w     72 calls
| JK: JK                            :     21.800u      4.167s      3.899w     72 calls
| | DFH: compute_JK()               :      0.083u      0.000s      0.016w     45 calls
| | | DFH: Grabbing AOs             :      0.000u      0.000s      0.000w     45 calls
| | | DFH: compute_J                :      0.000u      0.000s      0.005w     45 calls
| | | DFH: compute_K                :      0.050u      0.000s      0.007w     45 calls
| | Libint2ERI::Libint2ERI          :      4.617u      0.883s      0.822w     27 calls
| | build_JK_matrices()             :      2.900u      0.017s      0.449w     27 calls
| JK: AO2USO                        :      0.117u      0.000s      0.008w     72 calls
HF: Form F                          :      0.033u      0.000s      0.003w     72 calls
HF: Form D                          :      0.000u      0.000s      0.002w     72 calls
HF: DIIS                            :      5.850u      0.250s      1.076w     70 calls
HF: Form C                          :      0.517u      0.000s      0.090w     70 calls
Grad: V T Perturb                   :      0.033u      0.000s      0.009w      4 calls
Grad: S                             :      0.017u      0.017s      0.004w      4 calls
Grad: JK                            :      6.133u      1.000s      1.105w      4 calls
| Libint2ERI::Libint2ERI            :      4.150u      0.833s      0.785w     16 calls
Grad: XC                            :      0.000u      0.000s      0.000w      4 calls

**************************************************************************************

Host: laptop

Timers On : Fri Oct 13 18:07:10 2023
Timers Off: Fri Oct 13 18:07:12 2023

Wall Time:        2.13 seconds

                                                       Time (seconds)
Module                                       User      System        Wall        Calls

--------------------------------------------------------------------------------------

**************************************************************************************

Host: laptop

Timers On : Fri Oct 13 18:08:44 2023
Timers Off: Fri Oct 13 18:09:04 2023

Wall Time:       20.32 seconds

                                                       Time (seconds)
Module                                       User      System        Wall        Calls
DFH: sparsity prep                  :      0.217u      0.200s      0.235w      7 calls
Libint2ERI::Libint2ERI              :     11.167u      2.417s      2.154w     96 calls
DFH: initialize()                   :      1.750u      0.233s      0.358w      7 calls
DFH: AO Construction                :      0.167u      0.000s      0.025w      7 calls
DFH: AO-Met. Contraction            :      0.017u      0.000s      0.005w      7 calls
HF: Form core H                     :      0.283u      0.017s      0.049w      7 calls
HF: Form S/X                        :      0.017u      0.000s      0.004w      7 calls
HF: Guess                           :      3.283u      0.250s      0.528w      7 calls
SAD Guess                           :      3.133u      0.250s      0.507w      3 calls
HF: Form G                          :     25.633u      5.017s      4.602w     96 calls
JK: D                               :      0.000u      0.000s      0.002w     96 calls
JK: USO2AO                          :      0.117u      0.000s      0.013w     96 calls
JK: JK                              :     25.400u      5.017s      4.572w     96 calls
DFH: compute_JK()                   :      0.017u      0.000s      0.016w     62 calls
DFH: Grabbing AOs                   :      0.000u      0.000s      0.000w     62 calls
DFH: compute_J                      :      0.017u      0.000s      0.005w     62 calls
DFH: compute_K                      :      0.000u      0.000s      0.008w     62 calls
build_JK_matrices()                 :      3.150u      0.000s      0.484w     34 calls
JK: AO2USO                          :      0.050u      0.000s      0.008w     96 calls
HF: Form F                          :      0.000u      0.000s      0.003w     96 calls
HF: Form D                          :      0.033u      0.000s      0.002w     96 calls
HF: DIIS                            :      6.317u      0.183s      1.079w     93 calls
HF: Form C                          :      0.633u      0.000s      0.105w     93 calls
Grad: V T Perturb                   :      0.050u      0.000s      0.009w      5 calls
Grad: S                             :      0.033u      0.017s      0.004w      5 calls
Grad: JK                            :      6.900u      1.200s      1.221w      5 calls
Grad: XC                            :      0.000u      0.000s      0.000w      5 calls

--------------------------------------------------------------------------------------
DFH: sparsity prep                  :      0.217u      0.200s      0.235w      7 calls
| Libint2ERI::Libint2ERI            :      0.150u      0.200s      0.178w      7 calls
DFH: initialize()                   :      1.750u      0.233s      0.358w      7 calls
| Libint2ERI::Libint2ERI            :      0.750u      0.150s      0.129w     35 calls
| DFH: AO Construction              :      0.167u      0.000s      0.025w      7 calls
| DFH: AO-Met. Contraction          :      0.017u      0.000s      0.005w      7 calls
HF: Form core H                     :      0.283u      0.017s      0.049w      7 calls
HF: Form S/X                        :      0.017u      0.000s      0.004w      7 calls
HF: Guess                           :      3.283u      0.250s      0.528w      7 calls
| SAD Guess                         :      3.133u      0.250s      0.507w      3 calls
HF: Form G                          :     25.633u      5.017s      4.602w     96 calls
| JK: D                             :      0.000u      0.000s      0.002w     96 calls
| JK: USO2AO                        :      0.117u      0.000s      0.013w     96 calls
| JK: JK                            :     25.400u      5.017s      4.572w     96 calls
| | DFH: compute_JK()               :      0.017u      0.000s      0.016w     62 calls
| | | DFH: Grabbing AOs             :      0.000u      0.000s      0.000w     62 calls
| | | DFH: compute_J                :      0.017u      0.000s      0.005w     62 calls
| | | DFH: compute_K                :      0.000u      0.000s      0.008w     62 calls
| | Libint2ERI::Libint2ERI          :      5.400u      1.050s      0.958w     34 calls
| | build_JK_matrices()             :      3.150u      0.000s      0.484w     34 calls
| JK: AO2USO                        :      0.050u      0.000s      0.008w     96 calls
HF: Form F                          :      0.000u      0.000s      0.003w     96 calls
HF: Form D                          :      0.033u      0.000s      0.002w     96 calls
HF: DIIS                            :      6.317u      0.183s      1.079w     93 calls
HF: Form C                          :      0.633u      0.000s      0.105w     93 calls
Grad: V T Perturb                   :      0.050u      0.000s      0.009w      5 calls
Grad: S                             :      0.033u      0.017s      0.004w      5 calls
Grad: JK                            :      6.900u      1.200s      1.221w      5 calls
| Libint2ERI::Libint2ERI            :      4.867u      1.017s      0.889w     20 calls
Grad: XC                            :      0.000u      0.000s      0.000w      5 calls

**************************************************************************************

Host: laptop

Timers On : Fri Oct 13 18:09:33 2023
Timers Off: Fri Oct 13 18:09:35 2023

Wall Time:        1.94 seconds

                                                       Time (seconds)
Module                                       User      System        Wall        Calls

--------------------------------------------------------------------------------------

**************************************************************************************

Host: laptop

Timers On : Fri Oct 13 18:10:20 2023
Timers Off: Fri Oct 13 18:10:22 2023

Wall Time:        2.15 seconds

                                                       Time (seconds)
Module                                       User      System        Wall        Calls

--------------------------------------------------------------------------------------

**************************************************************************************

Host: laptop

Timers On : Fri Oct 13 18:10:29 2023
Timers Off: Fri Oct 13 18:10:53 2023

Wall Time:       23.90 seconds

                                                       Time (seconds)
Module                                       User      System        Wall        Calls
DFH: sparsity prep                  :      0.317u      0.150s      0.287w      7 calls
Libint2ERI::Libint2ERI              :     12.617u      2.267s      2.444w     96 calls
DFH: initialize()                   :      2.033u      0.217s      0.413w      7 calls
DFH: AO Construction                :      0.183u      0.000s      0.027w      7 calls
DFH: AO-Met. Contraction            :      0.033u      0.000s      0.005w      7 calls
HF: Form core H                     :      0.267u      0.000s      0.049w      7 calls
HF: Form S/X                        :      0.033u      0.000s      0.004w      7 calls
HF: Guess                           :      3.400u      0.233s      0.546w      7 calls
SAD Guess                           :      3.250u      0.233s      0.523w      3 calls
HF: Form G                          :     29.733u      5.750s      5.342w     96 calls
JK: D                               :      0.000u      0.017s      0.003w     96 calls
JK: USO2AO                          :      0.100u      0.000s      0.016w     96 calls
JK: JK                              :     29.550u      5.717s      5.305w     96 calls
DFH: compute_JK()                   :      0.050u      0.000s      0.019w     62 calls
DFH: Grabbing AOs                   :      0.000u      0.000s      0.000w     62 calls
DFH: compute_J                      :      0.017u      0.000s      0.006w     62 calls
DFH: compute_K                      :      0.017u      0.000s      0.009w     62 calls
build_JK_matrices()                 :      4.050u      0.000s      0.609w     34 calls
JK: AO2USO                          :      0.050u      0.017s      0.010w     96 calls
HF: Form F                          :      0.000u      0.000s      0.004w     96 calls
HF: Form D                          :      0.033u      0.000s      0.002w     96 calls
HF: DIIS                            :      6.883u      0.300s      1.190w     93 calls
HF: Form C                          :      0.683u      0.033s      0.121w     93 calls
Grad: V T Perturb                   :      0.050u      0.000s      0.011w      5 calls
Grad: S                             :      0.033u      0.000s      0.005w      5 calls
Grad: JK                            :      7.483u      1.250s      1.334w      5 calls
Grad: XC                            :      0.000u      0.000s      0.000w      5 calls

--------------------------------------------------------------------------------------
DFH: sparsity prep                  :      0.317u      0.150s      0.287w      7 calls
| Libint2ERI::Libint2ERI            :      0.183u      0.150s      0.218w      7 calls
DFH: initialize()                   :      2.033u      0.217s      0.413w      7 calls
| Libint2ERI::Libint2ERI            :      0.833u      0.133s      0.144w     35 calls
| DFH: AO Construction              :      0.183u      0.000s      0.027w      7 calls
| DFH: AO-Met. Contraction          :      0.033u      0.000s      0.005w      7 calls
HF: Form core H                     :      0.267u      0.000s      0.049w      7 calls
HF: Form S/X                        :      0.033u      0.000s      0.004w      7 calls
HF: Guess                           :      3.400u      0.233s      0.546w      7 calls
| SAD Guess                         :      3.250u      0.233s      0.523w      3 calls
HF: Form G                          :     29.733u      5.750s      5.342w     96 calls
| JK: D                             :      0.000u      0.017s      0.003w     96 calls
| JK: USO2AO                        :      0.100u      0.000s      0.016w     96 calls
| JK: JK                            :     29.550u      5.717s      5.305w     96 calls
| | DFH: compute_JK()               :      0.050u      0.000s      0.019w     62 calls
| | | DFH: Grabbing AOs             :      0.000u      0.000s      0.000w     62 calls
| | | DFH: compute_J                :      0.017u      0.000s      0.006w     62 calls
| | | DFH: compute_K                :      0.017u      0.000s      0.009w     62 calls
| | Libint2ERI::Libint2ERI          :      6.333u      0.967s      1.119w     34 calls
| | build_JK_matrices()             :      4.050u      0.000s      0.609w     34 calls
| JK: AO2USO                        :      0.050u      0.017s      0.010w     96 calls
HF: Form F                          :      0.000u      0.000s      0.004w     96 calls
HF: Form D                          :      0.033u      0.000s      0.002w     96 calls
HF: DIIS                            :      6.883u      0.300s      1.190w     93 calls
HF: Form C                          :      0.683u      0.033s      0.121w     93 calls
Grad: V T Perturb                   :      0.050u      0.000s      0.011w      5 calls
Grad: S                             :      0.033u      0.000s      0.005w      5 calls
Grad: JK                            :      7.483u      1.250s      1.334w      5 calls
| Libint2ERI::Libint2ERI            :      5.267u      1.017s      0.963w     20 calls
Grad: XC                            :      0.000u      0.000s      0.000w      5 calls

**************************************************************************************

Host: laptop

Timers On : Fri Oct 13 18:11:32 2023
Timers Off: Fri Oct 13 18:11:53 2023

Wall Time:       20.85 seconds

                                                       Time (seconds)
Module                                       User      System        Wall        Calls
DFH: sparsity prep                  :      0.250u      0.133s      0.238w      7 calls
Libint2ERI::Libint2ERI              :     11.367u      2.233s      2.186w     96 calls
DFH: initialize()                   :      1.833u      0.167s      0.360w      7 calls
DFH: AO Construction                :      0.133u      0.000s      0.024w      7 calls
DFH: AO-Met. Contraction            :      0.017u      0.000s      0.005w      7 calls
HF: Form core H                     :      0.250u      0.033s      0.055w      7 calls
HF: Form S/X                        :      0.033u      0.017s      0.004w      7 calls
HF: Guess                           :      3.333u      0.233s      0.535w      7 calls
SAD Guess                           :      3.200u      0.233s      0.514w      3 calls
HF: Form G                          :     26.183u      5.233s      4.728w     96 calls
JK: D                               :      0.000u      0.000s      0.002w     96 calls
JK: USO2AO                          :      0.133u      0.000s      0.013w     96 calls
JK: JK                              :     25.967u      5.217s      4.697w     96 calls
DFH: compute_JK()                   :      0.017u      0.000s      0.016w     62 calls
DFH: Grabbing AOs                   :      0.000u      0.000s      0.000w     62 calls
DFH: compute_J                      :      0.000u      0.000s      0.005w     62 calls
DFH: compute_K                      :      0.017u      0.000s      0.008w     62 calls
build_JK_matrices()                 :      3.283u      0.083s      0.504w     34 calls
JK: AO2USO                          :      0.033u      0.000s      0.009w     96 calls
HF: Form F                          :      0.000u      0.000s      0.003w     96 calls
HF: Form D                          :      0.000u      0.000s      0.002w     96 calls
HF: DIIS                            :      6.200u      0.167s      1.084w     93 calls
HF: Form C                          :      0.783u      0.033s      0.106w     93 calls
Grad: V T Perturb                   :      0.067u      0.000s      0.010w      5 calls
Grad: S                             :      0.017u      0.000s      0.004w      5 calls
Grad: JK                            :      6.950u      1.167s      1.218w      5 calls
Grad: XC                            :      0.017u      0.000s      0.000w      5 calls

--------------------------------------------------------------------------------------
DFH: sparsity prep                  :      0.250u      0.133s      0.238w      7 calls
| Libint2ERI::Libint2ERI            :      0.150u      0.133s      0.179w      7 calls
DFH: initialize()                   :      1.833u      0.167s      0.360w      7 calls
| Libint2ERI::Libint2ERI            :      0.767u      0.100s      0.132w     35 calls
| DFH: AO Construction              :      0.133u      0.000s      0.024w      7 calls
| DFH: AO-Met. Contraction          :      0.017u      0.000s      0.005w      7 calls
HF: Form core H                     :      0.250u      0.033s      0.055w      7 calls
HF: Form S/X                        :      0.033u      0.017s      0.004w      7 calls
HF: Guess                           :      3.333u      0.233s      0.535w      7 calls
| SAD Guess                         :      3.200u      0.233s      0.514w      3 calls
HF: Form G                          :     26.183u      5.233s      4.728w     96 calls
| JK: D                             :      0.000u      0.000s      0.002w     96 calls
| JK: USO2AO                        :      0.133u      0.000s      0.013w     96 calls
| JK: JK                            :     25.967u      5.217s      4.697w     96 calls
| | DFH: compute_JK()               :      0.017u      0.000s      0.016w     62 calls
| | | DFH: Grabbing AOs             :      0.000u      0.000s      0.000w     62 calls
| | | DFH: compute_J                :      0.000u      0.000s      0.005w     62 calls
| | | DFH: compute_K                :      0.017u      0.000s      0.008w     62 calls
| | Libint2ERI::Libint2ERI          :      5.517u      1.017s      0.986w     34 calls
| | build_JK_matrices()             :      3.283u      0.083s      0.504w     34 calls
| JK: AO2USO                        :      0.033u      0.000s      0.009w     96 calls
HF: Form F                          :      0.000u      0.000s      0.003w     96 calls
HF: Form D                          :      0.000u      0.000s      0.002w     96 calls
HF: DIIS                            :      6.200u      0.167s      1.084w     93 calls
HF: Form C                          :      0.783u      0.033s      0.106w     93 calls
Grad: V T Perturb                   :      0.067u      0.000s      0.010w      5 calls
Grad: S                             :      0.017u      0.000s      0.004w      5 calls
Grad: JK                            :      6.950u      1.167s      1.218w      5 calls
| Libint2ERI::Libint2ERI            :      4.933u      0.983s      0.889w     20 calls
Grad: XC                            :      0.017u      0.000s      0.000w      5 calls

**************************************************************************************

Host: laptop

Timers On : Fri Oct 13 18:13:46 2023
Timers Off: Fri Oct 13 18:13:48 2023

Wall Time:        1.50 seconds

                                                       Time (seconds)
Module                                       User      System        Wall        Calls

--------------------------------------------------------------------------------------

**************************************************************************************

Host: laptop

Timers On : Fri Oct 13 18:13:40 2023
Timers Off: Fri Oct 13 18:14:20 2023

Wall Time:       39.48 seconds

                                                       Time (seconds)
Module                                       User      System        Wall        Calls
DFH: sparsity prep                  :      1.250u      0.333s      0.913w     18 calls
Libint2ERI::Libint2ERI              :     11.583u      1.233s      2.444w    212 calls
DFH: initialize()                   :     11.633u      0.917s      2.017w     18 calls
DFH: AO Construction                :      2.900u      0.150s      0.466w     18 calls
DFH: AO-Met. Contraction            :      0.817u      0.150s      0.128w     18 calls
HF: Form core H                     :      0.917u      0.000s      0.165w     18 calls
HF: Form S/X                        :      0.133u      0.000s      0.025w     18 calls
HF: Guess                           :      4.500u      0.317s      0.728w     18 calls
SAD Guess                           :      4.317u      0.300s      0.699w      4 calls
HF: Form G                          :     11.833u      0.950s      2.043w    167 calls
JK: D                               :      0.033u      0.000s      0.005w    167 calls
JK: USO2AO                          :      0.000u      0.000s      0.001w    167 calls
JK: JK                              :     11.600u      0.950s      2.012w    167 calls
DFH: compute_JK()                   :      0.867u      0.017s      0.262w    161 calls
DFH: Grabbing AOs                   :      0.017u      0.000s      0.001w    161 calls
DFH: compute_J                      :      0.217u      0.017s      0.081w    161 calls
DFH: compute_K                      :      0.467u      0.000s      0.152w    161 calls
build_JK_matrices()                 :      5.767u      0.000s      0.870w      6 calls
JK: AO2USO                          :      0.000u      0.000s      0.001w    167 calls
HF: Form F                          :      0.017u      0.000s      0.006w    167 calls
HF: Form D                          :      0.100u      0.000s      0.004w    167 calls
HF: DIIS                            :     11.450u      0.317s      1.927w    163 calls
HF: Form C                          :      1.900u      0.050s      0.317w    163 calls
Grad: V T Perturb                   :      0.267u      0.017s      0.054w     14 calls
Grad: S                             :      0.200u      0.017s      0.020w     14 calls
Grad: JK                            :     28.417u      2.750s      4.692w     14 calls
JKGrad: Amn                         :      8.767u      0.950s      1.467w     14 calls
JKGrad: Awmn                        :      0.000u      0.000s      0.000w     14 calls
JKGrad: AB                          :      3.500u      0.183s      0.548w     14 calls
JKGrad: UV                          :      0.150u      0.050s      0.025w     14 calls
JKGrad: ABx                         :      1.017u      0.017s      0.162w     14 calls
JKGrad: Amnx                        :     14.217u      1.467s      2.357w     14 calls
Grad: XC                            :      0.000u      0.000s      0.000w     14 calls

--------------------------------------------------------------------------------------
DFH: sparsity prep                  :      1.250u      0.333s      0.913w     18 calls
| Libint2ERI::Libint2ERI            :      0.700u      0.333s      0.660w     18 calls
DFH: initialize()                   :     11.633u      0.917s      2.017w     18 calls
| Libint2ERI::Libint2ERI            :      3.767u      0.383s      0.637w     90 calls
| DFH: AO Construction              :      2.900u      0.150s      0.466w     18 calls
| DFH: AO-Met. Contraction          :      0.817u      0.150s      0.128w     18 calls
HF: Form core H                     :      0.917u      0.000s      0.165w     18 calls
HF: Form S/X                        :      0.133u      0.000s      0.025w     18 calls
HF: Guess                           :      4.500u      0.317s      0.728w     18 calls
| SAD Guess                         :      4.317u      0.300s      0.699w      4 calls
HF: Form G                          :     11.833u      0.950s      2.043w    167 calls
| JK: D                             :      0.033u      0.000s      0.005w    167 calls
| JK: USO2AO                        :      0.000u      0.000s      0.001w    167 calls
| JK: JK                            :     11.600u      0.950s      2.012w    167 calls
| | DFH: compute_JK()               :      0.867u      0.017s      0.262w    161 calls
| | | DFH: Grabbing AOs             :      0.017u      0.000s      0.001w    161 calls
| | | DFH: compute_J                :      0.217u      0.017s      0.081w    161 calls
| | | DFH: compute_K                :      0.467u      0.000s      0.152w    161 calls
| | Libint2ERI::Libint2ERI          :      1.683u      0.200s      0.285w      6 calls
| | build_JK_matrices()             :      5.767u      0.000s      0.870w      6 calls
| JK: AO2USO                        :      0.000u      0.000s      0.001w    167 calls
HF: Form F                          :      0.017u      0.000s      0.006w    167 calls
HF: Form D                          :      0.100u      0.000s      0.004w    167 calls
HF: DIIS                            :     11.450u      0.317s      1.927w    163 calls
HF: Form C                          :      1.900u      0.050s      0.317w    163 calls
Grad: V T Perturb                   :      0.267u      0.017s      0.054w     14 calls
Grad: S                             :      0.200u      0.017s      0.020w     14 calls
Grad: JK                            :     28.417u      2.750s      4.692w     14 calls
| JKGrad: Amn                       :      8.767u      0.950s      1.467w     14 calls
| | Libint2ERI::Libint2ERI          :      2.350u      0.050s      0.358w     14 calls
| JKGrad: Awmn                      :      0.000u      0.000s      0.000w     14 calls
| JKGrad: AB                        :      3.500u      0.183s      0.548w     14 calls
| | Libint2ERI::Libint2ERI          :      0.050u      0.000s      0.008w     56 calls
| JKGrad: UV                        :      0.150u      0.050s      0.025w     14 calls
| JKGrad: ABx                       :      1.017u      0.017s      0.162w     14 calls
| | Libint2ERI::Libint2ERI          :      0.017u      0.000s      0.003w     14 calls
| JKGrad: Amnx                      :     14.217u      1.467s      2.357w     14 calls
| | Libint2ERI::Libint2ERI          :      3.017u      0.267s      0.493w     14 calls
Grad: XC                            :      0.000u      0.000s      0.000w     14 calls

**************************************************************************************

Host: laptop

Timers On : Fri Oct 13 18:14:49 2023
Timers Off: Fri Oct 13 18:14:50 2023

Wall Time:        1.67 seconds

                                                       Time (seconds)
Module                                       User      System        Wall        Calls

--------------------------------------------------------------------------------------

**************************************************************************************

Host: laptop

Timers On : Fri Oct 13 18:14:43 2023
Timers Off: Fri Oct 13 18:15:24 2023

Wall Time:       41.09 seconds

                                                       Time (seconds)
Module                                       User      System        Wall        Calls
DFH: sparsity prep                  :      1.250u      0.400s      0.973w     18 calls
Libint2ERI::Libint2ERI              :     12.033u      1.217s      2.526w    212 calls
DFH: initialize()                   :     12.167u      0.750s      2.093w     18 calls
DFH: AO Construction                :      3.183u      0.033s      0.490w     18 calls
DFH: AO-Met. Contraction            :      0.783u      0.133s      0.129w     18 calls
HF: Form core H                     :      1.000u      0.017s      0.168w     18 calls
HF: Form S/X                        :      0.100u      0.000s      0.025w     18 calls
HF: Guess                           :      4.717u      0.367s      0.762w     18 calls
SAD Guess                           :      4.483u      0.367s      0.732w      4 calls
HF: Form G                          :     11.600u      0.950s      2.035w    167 calls
JK: D                               :      0.033u      0.000s      0.005w    167 calls
JK: USO2AO                          :      0.033u      0.000s      0.002w    167 calls
JK: JK                              :     11.383u      0.950s      2.002w    167 calls
DFH: compute_JK()                   :      0.850u      0.000s      0.277w    161 calls
DFH: Grabbing AOs                   :      0.017u      0.000s      0.001w    161 calls
DFH: compute_J                      :      0.150u      0.000s      0.087w    161 calls
DFH: compute_K                      :      0.533u      0.000s      0.160w    161 calls
build_JK_matrices()                 :      5.800u      0.000s      0.877w      6 calls
JK: AO2USO                          :      0.017u      0.000s      0.001w    167 calls
HF: Form F                          :      0.033u      0.000s      0.007w    167 calls
HF: Form D                          :      0.233u      0.000s      0.005w    167 calls
HF: DIIS                            :     11.850u      0.400s      1.996w    163 calls
HF: Form C                          :      1.917u      0.100s      0.327w    163 calls
Grad: V T Perturb                   :      0.300u      0.033s      0.060w     14 calls
Grad: S                             :      0.250u      0.000s      0.021w     14 calls
Grad: JK                            :     29.500u      2.833s      4.869w     14 calls
JKGrad: Amn                         :      9.200u      1.033s      1.535w     14 calls
JKGrad: Awmn                        :      0.000u      0.000s      0.000w     14 calls
JKGrad: AB                          :      3.600u      0.150s      0.567w     14 calls
JKGrad: UV                          :      0.200u      0.067s      0.027w     14 calls
JKGrad: ABx                         :      1.033u      0.017s      0.167w     14 calls
JKGrad: Amnx                        :     14.817u      1.500s      2.436w     14 calls
Grad: XC                            :      0.000u      0.000s      0.000w     14 calls

--------------------------------------------------------------------------------------
DFH: sparsity prep                  :      1.250u      0.400s      0.973w     18 calls
| Libint2ERI::Libint2ERI            :      0.767u      0.383s      0.699w     18 calls
DFH: initialize()                   :     12.167u      0.750s      2.093w     18 calls
| Libint2ERI::Libint2ERI            :      4.083u      0.267s      0.661w     90 calls
| DFH: AO Construction              :      3.183u      0.033s      0.490w     18 calls
| DFH: AO-Met. Contraction          :      0.783u      0.133s      0.129w     18 calls
HF: Form core H                     :      1.000u      0.017s      0.168w     18 calls
HF: Form S/X                        :      0.100u      0.000s      0.025w     18 calls
HF: Guess                           :      4.717u      0.367s      0.762w     18 calls
| SAD Guess                         :      4.483u      0.367s      0.732w      4 calls
HF: Form G                          :     11.600u      0.950s      2.035w    167 calls
| JK: D                             :      0.033u      0.000s      0.005w    167 calls
| JK: USO2AO                        :      0.033u      0.000s      0.002w    167 calls
| JK: JK                            :     11.383u      0.950s      2.002w    167 calls
| | DFH: compute_JK()               :      0.850u      0.000s      0.277w    161 calls
| | | DFH: Grabbing AOs             :      0.017u      0.000s      0.001w    161 calls
| | | DFH: compute_J                :      0.150u      0.000s      0.087w    161 calls
| | | DFH: compute_K                :      0.533u      0.000s      0.160w    161 calls
| | Libint2ERI::Libint2ERI          :      1.583u      0.183s      0.268w      6 calls
| | build_JK_matrices()             :      5.800u      0.000s      0.877w      6 calls
| JK: AO2USO                        :      0.017u      0.000s      0.001w    167 calls
HF: Form F                          :      0.033u      0.000s      0.007w    167 calls
HF: Form D                          :      0.233u      0.000s      0.005w    167 calls
HF: DIIS                            :     11.850u      0.400s      1.996w    163 calls
HF: Form C                          :      1.917u      0.100s      0.327w    163 calls
Grad: V T Perturb                   :      0.300u      0.033s      0.060w     14 calls
Grad: S                             :      0.250u      0.000s      0.021w     14 calls
Grad: JK                            :     29.500u      2.833s      4.869w     14 calls
| JKGrad: Amn                       :      9.200u      1.033s      1.535w     14 calls
| | Libint2ERI::Libint2ERI          :      2.417u      0.117s      0.376w     14 calls
| JKGrad: Awmn                      :      0.000u      0.000s      0.000w     14 calls
| JKGrad: AB                        :      3.600u      0.150s      0.567w     14 calls
| | Libint2ERI::Libint2ERI          :      0.033u      0.000s      0.008w     56 calls
| JKGrad: UV                        :      0.200u      0.067s      0.027w     14 calls
| JKGrad: ABx                       :      1.033u      0.017s      0.167w     14 calls
| | Libint2ERI::Libint2ERI          :      0.033u      0.000s      0.003w     14 calls
| JKGrad: Amnx                      :     14.817u      1.500s      2.436w     14 calls
| | Libint2ERI::Libint2ERI          :      3.117u      0.267s      0.511w     14 calls
Grad: XC                            :      0.000u      0.000s      0.000w     14 calls

**************************************************************************************

Host: laptop

Timers On : Fri Oct 13 18:18:05 2023
Timers Off: Fri Oct 13 18:18:06 2023

Wall Time:        1.53 seconds

                                                       Time (seconds)
Module                                       User      System        Wall        Calls

--------------------------------------------------------------------------------------

**************************************************************************************

Host: laptop

Timers On : Fri Oct 13 18:17:59 2023
Timers Off: Fri Oct 13 18:24:38 2023

Wall Time:      398.99 seconds

                                                       Time (seconds)
Module                                       User      System        Wall        Calls
DFH: sparsity prep                  :      2.650u      0.067s      1.628w      6 calls
Libint2ERI::Libint2ERI              :     41.867u      1.033s      8.843w     81 calls
DFH: initialize()                   :     62.917u      4.183s     10.359w      6 calls
DFH: AO Construction                :     22.483u      0.917s      3.517w      6 calls
DFH: AO-Met. Contraction            :     22.217u      2.417s      3.694w      6 calls
HF: Form core H                     :      1.217u      0.000s      0.192w      6 calls
HF: Form S/X                        :      0.533u      0.000s      0.073w      6 calls
HF: Guess                           :      9.067u      0.233s      1.390w      6 calls
SAD Guess                           :      8.817u      0.200s      1.352w      6 calls
HF: Form G                          :   2338.850u      2.200s    352.930w     86 calls
JK: D                               :      0.033u      0.000s      0.011w     86 calls
JK: USO2AO                          :      0.017u      0.000s      0.002w     86 calls
JK: JK                              :   2338.617u      2.200s    352.886w     86 calls
DFH: compute_JK()                   :     38.100u      0.683s      5.852w     61 calls
DFH: Grabbing AOs                   :      0.000u      0.000s      0.000w     61 calls
DFH: compute_J                      :      9.067u      0.000s      1.379w     61 calls
DFH: compute_K                      :     25.667u      0.167s      3.920w     61 calls
build_JK_matrices()                 :   2267.233u      0.167s    340.444w     25 calls
JK: AO2USO                          :      0.000u      0.000s      0.000w     86 calls
HF: Form F                          :      0.017u      0.000s      0.012w     86 calls
HF: Form D                          :      0.067u      0.000s      0.010w     86 calls
HF: DIIS                            :      8.300u      0.233s      1.456w     80 calls
HF: Form C                          :      7.750u      0.067s      1.166w     80 calls
SAPT: Dimer SCF                     :    949.517u      2.017s    144.603w      1 calls
SAPT: Monomer A SCF                 :    871.517u      2.083s    132.925w      1 calls
SAPT: Monomer B SCF                 :    320.467u      0.883s     48.440w      1 calls
OO DF Integrals                     :      6.667u      0.167s      1.224w      1 calls
Elst10                              :      0.000u      0.000s      0.000w      1 calls
Exch10                              :      0.033u      0.000s      0.005w      1 calls
Exch10 S^2                          :      0.033u      0.000s      0.005w      1 calls
SAPT0: DF Integrals                 :     13.683u      1.383s      2.845w      1 calls
SAPT0: W Integrals                  :      0.067u      0.033s      0.016w      1 calls
SAPT0: Ind20                        :     17.183u      4.400s      3.237w      1 calls
SAPT0: Exch-Ind20                   :      0.383u      0.017s      0.061w      1 calls
SAPT0: Exch-Disp20 N^5              :      5.283u      0.733s      0.946w      1 calls
SAPT0: Exch-Disp20 N^4              :     13.050u      0.867s      2.089w      1 calls

--------------------------------------------------------------------------------------
DFH: sparsity prep                  :      1.350u      0.067s      0.840w      3 calls
| Libint2ERI::Libint2ERI            :      0.867u      0.067s      0.566w      3 calls
DFH: initialize()                   :     19.917u      1.217s      3.308w      3 calls
| Libint2ERI::Libint2ERI            :      3.750u      0.117s      0.691w     15 calls
| DFH: AO Construction              :      7.283u      0.200s      1.127w      3 calls
| DFH: AO-Met. Contraction          :      4.233u      0.550s      0.715w      3 calls
HF: Form core H                     :      0.533u      0.000s      0.084w      3 calls
HF: Form S/X                        :      0.183u      0.000s      0.024w      3 calls
HF: Guess                           :      5.000u      0.100s      0.765w      3 calls
| SAD Guess                         :      4.867u      0.083s      0.744w      3 calls
HF: Form G                          :    273.067u      1.017s     41.610w     34 calls
| JK: D                             :      0.000u      0.000s      0.003w     34 calls
| JK: USO2AO                        :      0.017u      0.000s      0.001w     34 calls
| JK: JK                            :    272.967u      1.017s     41.596w     34 calls
| | DFH: compute_JK()               :      7.717u      0.217s      1.210w     26 calls
| | | DFH: Grabbing AOs             :      0.000u      0.000s      0.000w     26 calls
| | | DFH: compute_J                :      1.700u      0.000s      0.265w     26 calls
| | | DFH: compute_K                :      4.933u      0.017s      0.770w     26 calls
| | Libint2ERI::Libint2ERI          :     10.333u      0.267s      1.785w      8 calls
| | build_JK_matrices()             :    253.967u      0.017s     38.105w      8 calls
| JK: AO2USO                        :      0.000u      0.000s      0.000w     34 calls
HF: Form F                          :      0.000u      0.000s      0.004w     34 calls
HF: Form D                          :      0.050u      0.000s      0.003w     34 calls
HF: DIIS                            :      4.000u      0.167s      0.808w     31 calls
HF: Form C                          :      1.833u      0.017s      0.271w     31 calls
SAPT: Dimer SCF                     :    949.517u      2.017s    144.603w      1 calls
| DFH: sparsity prep                :      0.517u      0.000s      0.319w      1 calls
| | Libint2ERI::Libint2ERI          :      0.350u      0.000s      0.211w      1 calls
| DFH: initialize()                 :     17.717u      1.150s      2.903w      1 calls
| | Libint2ERI::Libint2ERI          :      1.300u      0.017s      0.259w      5 calls
| | DFH: AO Construction            :      6.467u      0.283s      1.017w      1 calls
| | DFH: AO-Met. Contraction        :      7.400u      0.717s      1.214w      1 calls
| HF: Form core H                   :      0.267u      0.000s      0.039w      1 calls
| HF: Form S/X                      :      0.133u      0.000s      0.020w      1 calls
| HF: Guess                         :      2.033u      0.067s      0.313w      1 calls
| | SAD Guess                       :      1.983u      0.067s      0.306w      1 calls
| HF: Form G                        :    918.333u      0.533s    138.460w     19 calls
| | JK: D                           :      0.017u      0.000s      0.004w     19 calls
| | JK: USO2AO                      :      0.000u      0.000s      0.000w     19 calls
| | JK: JK                          :    918.267u      0.533s    138.447w     19 calls
| | | DFH: compute_JK()             :     17.517u      0.317s      2.677w     13 calls
| | | | DFH: Grabbing AOs           :      0.000u      0.000s      0.000w     13 calls
| | | | DFH: compute_J              :      3.483u      0.000s      0.524w     13 calls
| | | | DFH: compute_K              :     12.317u      0.033s      1.861w     13 calls
| | | Libint2ERI::Libint2ERI        :      8.367u      0.133s      1.681w      6 calls
| | | build_JK_matrices()           :    891.733u      0.033s    133.903w      6 calls
| | JK: AO2USO                      :      0.000u      0.000s      0.000w     19 calls
| HF: Form F                        :      0.000u      0.000s      0.004w     19 calls
| HF: Form D                        :      0.017u      0.000s      0.003w     19 calls
| HF: DIIS                          :      1.967u      0.033s      0.290w     18 calls
| HF: Form C                        :      2.650u      0.017s      0.403w     18 calls
SAPT: Monomer A SCF                 :    871.517u      2.083s    132.925w      1 calls
| DFH: sparsity prep                :      0.600u      0.000s      0.355w      1 calls
| | Libint2ERI::Libint2ERI          :      0.400u      0.000s      0.240w      1 calls
| DFH: initialize()                 :     17.450u      1.333s      2.897w      1 calls
| | Libint2ERI::Libint2ERI          :      1.283u      0.050s      0.265w      5 calls
| | DFH: AO Construction            :      6.117u      0.333s      0.968w      1 calls
| | DFH: AO-Met. Contraction        :      7.233u      0.833s      1.213w      1 calls
| HF: Form core H                   :      0.283u      0.000s      0.046w      1 calls
| HF: Form S/X                      :      0.150u      0.000s      0.020w      1 calls
| HF: Guess                         :      1.167u      0.017s      0.177w      1 calls
| | SAD Guess                       :      1.117u      0.017s      0.169w      1 calls
| HF: Form G                        :    841.583u      0.433s    126.931w     16 calls
| | JK: D                           :      0.017u      0.000s      0.003w     16 calls
| | JK: USO2AO                      :      0.000u      0.000s      0.000w     16 calls
| | JK: JK                          :    841.517u      0.433s    126.921w     16 calls
| | | DFH: compute_JK()             :      8.083u      0.083s      1.228w     10 calls
| | | | DFH: Grabbing AOs           :      0.000u      0.000s      0.000w     10 calls
| | | | DFH: compute_J              :      2.700u      0.000s      0.410w     10 calls
| | | | DFH: compute_K              :      5.150u      0.083s      0.787w     10 calls
| | | Libint2ERI::Libint2ERI        :      8.267u      0.200s      1.648w      6 calls
| | | build_JK_matrices()           :    824.517u      0.100s    123.878w      6 calls
| | JK: AO2USO                      :      0.000u      0.000s      0.000w     16 calls
| HF: Form F                        :      0.017u      0.000s      0.003w     16 calls
| HF: Form D                        :      0.000u      0.000s      0.002w     16 calls
| HF: DIIS                          :      1.633u      0.017s      0.251w     15 calls
| HF: Form C                        :      2.267u      0.017s      0.342w     15 calls
SAPT: Monomer B SCF                 :    320.467u      0.883s     48.440w      1 calls
| DFH: sparsity prep                :      0.183u      0.000s      0.114w      1 calls
| | Libint2ERI::Libint2ERI          :      0.133u      0.000s      0.079w      1 calls
| DFH: initialize()                 :      7.833u      0.483s      1.251w      1 calls
| | Libint2ERI::Libint2ERI          :      0.750u      0.000s      0.113w      5 calls
| | DFH: AO Construction            :      2.617u      0.100s      0.405w      1 calls
| | DFH: AO-Met. Contraction        :      3.350u      0.317s      0.552w      1 calls
| HF: Form core H                   :      0.133u      0.000s      0.023w      1 calls
| HF: Form S/X                      :      0.067u      0.000s      0.009w      1 calls
| HF: Guess                         :      0.867u      0.050s      0.135w      1 calls
| | SAD Guess                       :      0.850u      0.033s      0.132w      1 calls
| HF: Form G                        :    305.867u      0.217s     45.929w     17 calls
| | JK: D                           :      0.000u      0.000s      0.002w     17 calls
| | JK: USO2AO                      :      0.000u      0.000s      0.000w     17 calls
| | JK: JK                          :    305.867u      0.217s     45.923w     17 calls
| | | DFH: compute_JK()             :      4.783u      0.067s      0.736w     12 calls
| | | | DFH: Grabbing AOs           :      0.000u      0.000s      0.000w     12 calls
| | | | DFH: compute_J              :      1.183u      0.000s      0.180w     12 calls
| | | | DFH: compute_K              :      3.267u      0.033s      0.503w     12 calls
| | | Libint2ERI::Libint2ERI        :      3.617u      0.133s      0.564w      5 calls
| | | build_JK_matrices()           :    297.017u      0.017s     44.558w      5 calls
| | JK: AO2USO                      :      0.000u      0.000s      0.000w     17 calls
| HF: Form F                        :      0.000u      0.000s      0.002w     17 calls
| HF: Form D                        :      0.000u      0.000s      0.001w     17 calls
| HF: DIIS                          :      0.700u      0.017s      0.108w     16 calls
| HF: Form C                        :      1.000u      0.017s      0.151w     16 calls
OO DF Integrals                     :      6.667u      0.167s      1.224w      1 calls
| Libint2ERI::Libint2ERI            :      1.183u      0.033s      0.368w     10 calls
Elst10                              :      0.000u      0.000s      0.000w      1 calls
Exch10                              :      0.033u      0.000s      0.005w      1 calls
Exch10 S^2                          :      0.033u      0.000s      0.005w      1 calls
SAPT0: DF Integrals                 :     13.683u      1.383s      2.845w      1 calls
| Libint2ERI::Libint2ERI            :      1.267u      0.017s      0.372w     10 calls
SAPT0: W Integrals                  :      0.067u      0.033s      0.016w      1 calls
SAPT0: Ind20                        :     17.183u      4.400s      3.237w      1 calls
SAPT0: Exch-Ind20                   :      0.383u      0.017s      0.061w      1 calls
SAPT0: Exch-Disp20 N^5              :      5.283u      0.733s      0.946w      1 calls
SAPT0: Exch-Disp20 N^4              :     13.050u      0.867s      2.089w      1 calls

**************************************************************************************

Host: laptop

Timers On : Fri Oct 13 18:27:09 2023
Timers Off: Fri Oct 13 18:27:09 2023

Wall Time:        0.47 seconds

                                                       Time (seconds)
Module                                       User      System        Wall        Calls

--------------------------------------------------------------------------------------

**************************************************************************************

Host: laptop

Timers On : Fri Oct 13 18:27:06 2023
Timers Off: Fri Oct 13 18:30:44 2023

Wall Time:      217.91 seconds

                                                       Time (seconds)
Module                                       User      System        Wall        Calls
DFH: sparsity prep                  :      1.050u      0.000s      0.653w      6 calls
Libint2ERI::Libint2ERI              :     27.183u      0.517s      4.900w     81 calls
DFH: initialize()                   :     35.533u      2.067s      5.662w      6 calls
DFH: AO Construction                :     11.567u      0.567s      1.820w      6 calls
DFH: AO-Met. Contraction            :     12.883u      1.183s      2.112w      6 calls
HF: Form core H                     :      0.783u      0.000s      0.119w      6 calls
HF: Form S/X                        :      0.267u      0.050s      0.045w      6 calls
HF: Guess                           :      4.783u      0.100s      0.739w      6 calls
SAD Guess                           :      4.650u      0.100s      0.719w      6 calls
HF: Form G                          :   1263.233u      1.483s    189.835w     86 calls
JK: D                               :      0.067u      0.017s      0.008w     86 calls
JK: USO2AO                          :      0.000u      0.000s      0.001w     86 calls
JK: JK                              :   1263.150u      1.467s    189.809w     86 calls
DFH: compute_JK()                   :     18.983u      0.617s      2.993w     61 calls
DFH: Grabbing AOs                   :      0.000u      0.017s      0.000w     61 calls
DFH: compute_J                      :      4.433u      0.033s      0.662w     61 calls
DFH: compute_K                      :     13.067u      0.317s      2.062w     61 calls
build_JK_matrices()                 :   1221.833u      0.083s    183.340w     25 calls
JK: AO2USO                          :      0.000u      0.000s      0.000w     86 calls
HF: Form F                          :      0.050u      0.000s      0.007w     86 calls
HF: Form D                          :      0.000u      0.000s      0.005w     86 calls
HF: DIIS                            :      4.567u      0.117s      0.704w     80 calls
HF: Form C                          :      4.167u      0.033s      0.635w     80 calls
SAPT: Dimer SCF                     :    424.667u      1.067s     64.281w      1 calls
SAPT: Monomer A SCF                 :    428.233u      1.000s     64.696w      1 calls
SAPT: Monomer B SCF                 :    328.500u      1.100s     49.825w      1 calls
OO DF Integrals                     :      7.133u      0.117s      1.311w      1 calls
Elst10                              :      0.000u      0.000s      0.000w      1 calls
Exch10                              :      0.017u      0.017s      0.005w      1 calls
Exch10 S^2                          :      0.000u      0.000s      0.004w      1 calls
SAPT0: DF Integrals                 :     13.983u      1.450s      2.980w      1 calls
SAPT0: W Integrals                  :      0.050u      0.017s      0.010w      1 calls
SAPT0: Ind20                        :     17.250u      4.517s      3.264w      1 calls
SAPT0: Exch-Ind20                   :      0.317u      0.050s      0.057w      1 calls
SAPT0: Exch-Disp20 N^5              :      5.050u      0.717s      0.920w      1 calls
SAPT0: Exch-Disp20 N^4              :     13.017u      0.817s      2.076w      1 calls

--------------------------------------------------------------------------------------
DFH: sparsity prep                  :      0.383u      0.000s      0.255w      3 calls
| Libint2ERI::Libint2ERI            :      0.267u      0.000s      0.168w      3 calls
DFH: initialize()                   :      9.600u      0.433s      1.515w      3 calls
| Libint2ERI::Libint2ERI            :      1.883u      0.000s      0.291w     15 calls
| DFH: AO Construction              :      3.150u      0.100s      0.487w      3 calls
| DFH: AO-Met. Contraction          :      2.067u      0.217s      0.344w      3 calls
HF: Form core H                     :      0.283u      0.000s      0.041w      3 calls
HF: Form S/X                        :      0.050u      0.033s      0.011w      3 calls
HF: Guess                           :      2.217u      0.050s      0.343w      3 calls
| SAD Guess                         :      2.150u      0.050s      0.334w      3 calls
HF: Form G                          :    129.067u      0.550s     19.481w     34 calls
| JK: D                             :      0.017u      0.017s      0.002w     34 calls
| JK: USO2AO                        :      0.000u      0.000s      0.000w     34 calls
| JK: JK                            :    129.033u      0.533s     19.473w     34 calls
| | DFH: compute_JK()               :      3.267u      0.150s      0.533w     26 calls
| | | DFH: Grabbing AOs             :      0.000u      0.000s      0.000w     26 calls
| | | DFH: compute_J                :      0.817u      0.033s      0.126w     26 calls
| | | DFH: compute_K                :      2.033u      0.067s      0.341w     26 calls
| | Libint2ERI::Libint2ERI          :      5.100u      0.117s      0.786w      8 calls
| | build_JK_matrices()             :    119.300u      0.000s     17.901w      8 calls
| JK: AO2USO                        :      0.000u      0.000s      0.000w     34 calls
HF: Form F                          :      0.017u      0.000s      0.002w     34 calls
HF: Form D                          :      0.000u      0.000s      0.001w     34 calls
HF: DIIS                            :      2.167u      0.100s      0.346w     31 calls
HF: Form C                          :      0.783u      0.000s      0.116w     31 calls
SAPT: Dimer SCF                     :    424.667u      1.067s     64.281w      1 calls
| DFH: sparsity prep                :      0.233u      0.000s      0.138w      1 calls
| | Libint2ERI::Libint2ERI          :      0.133u      0.000s      0.086w      1 calls
| DFH: initialize()                 :      8.483u      0.500s      1.354w      1 calls
| | Libint2ERI::Libint2ERI          :      0.800u      0.000s      0.120w      5 calls
| | DFH: AO Construction            :      2.833u      0.133s      0.443w      1 calls
| | DFH: AO-Met. Contraction        :      3.633u      0.317s      0.594w      1 calls
| HF: Form core H                   :      0.183u      0.000s      0.026w      1 calls
| HF: Form S/X                      :      0.067u      0.017s      0.012w      1 calls
| HF: Guess                         :      0.917u      0.000s      0.138w      1 calls
| | SAD Guess                       :      0.883u      0.000s      0.135w      1 calls
| HF: Form G                        :    409.517u      0.400s     61.512w     19 calls
| | JK: D                           :      0.017u      0.000s      0.003w     19 calls
| | JK: USO2AO                      :      0.000u      0.000s      0.000w     19 calls
| | JK: JK                          :    409.500u      0.400s     61.504w     19 calls
| | | DFH: compute_JK()             :      7.400u      0.217s      1.152w     13 calls
| | | | DFH: Grabbing AOs           :      0.000u      0.000s      0.000w     13 calls
| | | | DFH: compute_J              :      1.333u      0.000s      0.198w     13 calls
| | | | DFH: compute_K              :      5.383u      0.083s      0.832w     13 calls
| | | Libint2ERI::Libint2ERI        :      4.667u      0.100s      0.718w      6 calls
| | | build_JK_matrices()           :    396.833u      0.050s     59.542w      6 calls
| | JK: AO2USO                      :      0.000u      0.000s      0.000w     19 calls
| HF: Form F                        :      0.000u      0.000s      0.002w     19 calls
| HF: Form D                        :      0.000u      0.000s      0.002w     19 calls
| HF: DIIS                          :      0.933u      0.000s      0.131w     18 calls
| HF: Form C                        :      1.133u      0.000s      0.182w     18 calls
SAPT: Monomer A SCF                 :    428.233u      1.000s     64.696w      1 calls
| DFH: sparsity prep                :      0.200u      0.000s      0.115w      1 calls
| | Libint2ERI::Libint2ERI          :      0.133u      0.000s      0.078w      1 calls
| DFH: initialize()                 :      8.333u      0.583s      1.339w      1 calls
| | Libint2ERI::Libint2ERI          :      0.750u      0.017s      0.115w      5 calls
| | DFH: AO Construction            :      2.933u      0.200s      0.472w      1 calls
| | DFH: AO-Met. Contraction        :      3.467u      0.333s      0.567w      1 calls
| HF: Form core H                   :      0.150u      0.000s      0.024w      1 calls
| HF: Form S/X                      :      0.050u      0.000s      0.009w      1 calls
| HF: Guess                         :      0.517u      0.000s      0.078w      1 calls
| | SAD Guess                       :      0.500u      0.000s      0.075w      1 calls
| HF: Form G                        :    413.067u      0.267s     62.044w     16 calls
| | JK: D                           :      0.033u      0.000s      0.002w     16 calls
| | JK: USO2AO                      :      0.000u      0.000s      0.000w     16 calls
| | JK: JK                          :    413.033u      0.267s     62.038w     16 calls
| | | DFH: compute_JK()             :      3.400u      0.083s      0.528w     10 calls
| | | | DFH: Grabbing AOs           :      0.000u      0.017s      0.000w     10 calls
| | | | DFH: compute_J              :      1.050u      0.000s      0.157w     10 calls
| | | | DFH: compute_K              :      2.300u      0.067s      0.358w     10 calls
| | | Libint2ERI::Libint2ERI        :      5.583u      0.133s      0.857w      6 calls
| | | build_JK_matrices()           :    403.483u      0.033s     60.558w      6 calls
| | JK: AO2USO                      :      0.000u      0.000s      0.000w     16 calls
| HF: Form F                        :      0.017u      0.000s      0.001w     16 calls
| HF: Form D                        :      0.000u      0.000s      0.001w     16 calls
| HF: DIIS                          :      0.683u      0.000s      0.113w     15 calls
| HF: Form C                        :      1.217u      0.000s      0.173w     15 calls
SAPT: Monomer B SCF                 :    328.500u      1.100s     49.825w      1 calls
| DFH: sparsity prep                :      0.233u      0.000s      0.144w      1 calls
| | Libint2ERI::Libint2ERI          :      0.150u      0.000s      0.093w      1 calls
| DFH: initialize()                 :      9.117u      0.550s      1.455w      1 calls
| | Libint2ERI::Libint2ERI          :      1.150u      0.017s      0.173w      5 calls
| | DFH: AO Construction            :      2.650u      0.133s      0.418w      1 calls
| | DFH: AO-Met. Contraction        :      3.717u      0.317s      0.607w      1 calls
| HF: Form core H                   :      0.167u      0.000s      0.029w      1 calls
| HF: Form S/X                      :      0.100u      0.000s      0.013w      1 calls
| HF: Guess                         :      1.133u      0.050s      0.180w      1 calls
| | SAD Guess                       :      1.117u      0.050s      0.176w      1 calls
| HF: Form G                        :    311.583u      0.267s     46.799w     17 calls
| | JK: D                           :      0.000u      0.000s      0.002w     17 calls
| | JK: USO2AO                      :      0.000u      0.000s      0.000w     17 calls
| | JK: JK                          :    311.583u      0.267s     46.793w     17 calls
| | | DFH: compute_JK()             :      4.917u      0.167s      0.780w     12 calls
| | | | DFH: Grabbing AOs           :      0.000u      0.000s      0.000w     12 calls
| | | | DFH: compute_J              :      1.233u      0.000s      0.181w     12 calls
| | | | DFH: compute_K              :      3.350u      0.100s      0.532w     12 calls
| | | Libint2ERI::Libint2ERI        :      3.983u      0.100s      0.608w      5 calls
| | | build_JK_matrices()           :    302.217u      0.000s     45.339w      5 calls
| | JK: AO2USO                      :      0.000u      0.000s      0.000w     17 calls
| HF: Form F                        :      0.017u      0.000s      0.002w     17 calls
| HF: Form D                        :      0.000u      0.000s      0.001w     17 calls
| HF: DIIS                          :      0.783u      0.017s      0.115w     16 calls
| HF: Form C                        :      1.033u      0.033s      0.164w     16 calls
OO DF Integrals                     :      7.133u      0.117s      1.311w      1 calls
| Libint2ERI::Libint2ERI            :      1.250u      0.017s      0.398w     10 calls
Elst10                              :      0.000u      0.000s      0.000w      1 calls
Exch10                              :      0.017u      0.017s      0.005w      1 calls
Exch10 S^2                          :      0.000u      0.000s      0.004w      1 calls
SAPT0: DF Integrals                 :     13.983u      1.450s      2.980w      1 calls
| Libint2ERI::Libint2ERI            :      1.333u      0.017s      0.408w     10 calls
SAPT0: W Integrals                  :      0.050u      0.017s      0.010w      1 calls
SAPT0: Ind20                        :     17.250u      4.517s      3.264w      1 calls
SAPT0: Exch-Ind20                   :      0.317u      0.050s      0.057w      1 calls
SAPT0: Exch-Disp20 N^5              :      5.050u      0.717s      0.920w      1 calls
SAPT0: Exch-Disp20 N^4              :     13.017u      0.817s      2.076w      1 calls

**************************************************************************************

Host: laptop

Timers On : Fri Oct 13 18:53:44 2023
Timers Off: Fri Oct 13 18:55:20 2023

Wall Time:       96.36 seconds

                                                       Time (seconds)
Module                                       User      System        Wall        Calls
DFH: sparsity prep                  :      0.300u      0.017s      0.186w      2 calls
Libint2ERI::Libint2ERI              :      4.467u      0.017s      2.712w     58 calls
DFH: initialize()                   :      2.533u      0.167s      1.632w      2 calls
DFH: AO Construction                :      1.233u      0.050s      0.773w      2 calls
DFH: AO-Met. Contraction            :      0.700u      0.100s      0.465w      2 calls
HF: Form core H                     :      0.500u      0.033s      0.337w     10 calls
HF: Form S/X                        :      0.133u      0.000s      0.073w     10 calls
HF: Guess                           :      1.083u      0.050s      0.694w     10 calls
SAD Guess                           :      1.067u      0.050s      0.672w      8 calls
HF: Form G                          :     55.467u      1.200s     33.999w    113 calls
JK: D                               :      0.000u      0.000s      0.009w    113 calls
JK: USO2AO                          :      0.000u      0.000s      0.001w    113 calls
JK: JK                              :     55.417u      1.200s     33.969w    113 calls
DFH: compute_JK()                   :      2.033u      0.033s      1.249w     21 calls
DFH: Grabbing AOs                   :      0.000u      0.000s      0.000w     21 calls
DFH: compute_J                      :      0.333u      0.000s      0.191w     21 calls
DFH: compute_K                      :      1.650u      0.000s      0.999w     21 calls
JK: J                               :      2.633u      0.033s      1.623w     92 calls
JK: J1                              :      1.283u      0.033s      0.761w     92 calls
JK: J2                              :      1.333u      0.000s      0.845w     92 calls
JK: K                               :     50.533u      1.000s     30.916w     92 calls
JK: K1                              :     45.050u      1.000s     27.571w     92 calls
JK: K2                              :      5.483u      0.000s      3.342w     92 calls
JK: AO2USO                          :      0.000u      0.000s      0.000w    113 calls
HF: Form F                          :      0.017u      0.000s      0.009w    113 calls
HF: Form D                          :      0.033u      0.000s      0.007w    113 calls
HF: DIIS                            :      1.100u      0.233s      0.819w    105 calls
HF: Form C                          :      1.033u      0.000s      0.675w    105 calls
Grad: V T Perturb                   :      0.267u      0.000s      0.163w      4 calls
Grad: S                             :      0.033u      0.000s      0.016w      4 calls
Grad: JK                            :     13.600u      0.617s      8.573w      4 calls
JKGrad: Amn                         :      3.583u      0.300s      2.334w      4 calls
JKGrad: Awmn                        :      0.000u      0.000s      0.000w      4 calls
JKGrad: AB                          :      0.867u      0.017s      0.533w      4 calls
JKGrad: UV                          :      0.133u      0.017s      0.081w      4 calls
JKGrad: ABx                         :      0.183u      0.017s      0.121w      4 calls
JKGrad: Amnx                        :      8.833u      0.250s      5.466w      4 calls
Grad: XC                            :      0.000u      0.000s      0.000w      4 calls
SAPT: Dimer SCF                     :     30.800u      2.200s     19.819w      2 calls
JK: (A|mn)                          :      5.350u      0.283s      3.367w      4 calls
JK: (A|Q)^-1/2                      :      1.133u      0.000s      0.680w      4 calls
JK: (Q|mn)                          :      3.200u      0.233s      2.059w      4 calls
SAPT: Monomer A SCF                 :     16.017u      0.383s      9.838w      2 calls
SAPT: Monomer B SCF                 :     20.450u      0.500s     12.584w      2 calls
OO DF Integrals                     :      5.883u      0.167s      3.639w      2 calls
Elst10                              :      0.000u      0.000s      0.000w      2 calls
Exch10                              :      0.017u      0.017s      0.017w      2 calls
Exch10 S^2                          :      0.017u      0.000s      0.009w      2 calls
SAPT0: DF Integrals                 :     12.983u      2.633s      9.371w      2 calls
SAPT0: W Integrals                  :      0.017u      0.017s      0.026w      2 calls
SAPT0: Ind20                        :      5.833u      6.417s      7.347w      2 calls
SAPT0: Exch-Ind20                   :      0.200u      0.100s      0.187w      2 calls
SAPT0: Exch-Disp20 N^5              :      4.100u      1.000s      3.072w      2 calls
SAPT0: Exch-Disp20 N^4              :     12.050u      1.100s      7.887w      2 calls

--------------------------------------------------------------------------------------
DFH: sparsity prep                  :      0.300u      0.017s      0.186w      2 calls
| Libint2ERI::Libint2ERI            :      0.217u      0.017s      0.129w      2 calls
DFH: initialize()                   :      2.533u      0.167s      1.632w      2 calls
| Libint2ERI::Libint2ERI            :      0.217u      0.000s      0.135w      4 calls
| DFH: AO Construction              :      1.233u      0.050s      0.773w      2 calls
| DFH: AO-Met. Contraction          :      0.700u      0.100s      0.465w      2 calls
HF: Form core H                     :      0.133u      0.000s      0.115w      4 calls
HF: Form S/X                        :      0.033u      0.000s      0.014w      4 calls
HF: Guess                           :      0.300u      0.017s      0.188w      4 calls
| SAD Guess                         :      0.300u      0.017s      0.183w      2 calls
HF: Form G                          :      5.933u      0.050s      3.610w     43 calls
| JK: D                             :      0.000u      0.000s      0.003w     43 calls
| JK: USO2AO                        :      0.000u      0.000s      0.000w     43 calls
| JK: JK                            :      5.900u      0.050s      3.602w     43 calls
| | DFH: compute_JK()               :      2.033u      0.033s      1.249w     21 calls
| | | DFH: Grabbing AOs             :      0.000u      0.000s      0.000w     21 calls
| | | DFH: compute_J                :      0.333u      0.000s      0.191w     21 calls
| | | DFH: compute_K                :      1.650u      0.000s      0.999w     21 calls
| | JK: J                           :      0.183u      0.000s      0.124w     22 calls
| | | JK: J1                        :      0.117u      0.000s      0.064w     22 calls
| | | JK: J2                        :      0.067u      0.000s      0.059w     22 calls
| | JK: K                           :      3.617u      0.017s      2.202w     22 calls
| | | JK: K1                        :      3.000u      0.017s      1.797w     22 calls
| | | JK: K2                        :      0.617u      0.000s      0.405w     22 calls
| JK: AO2USO                        :      0.000u      0.000s      0.000w     43 calls
HF: Form F                          :      0.000u      0.000s      0.002w     43 calls
HF: Form D                          :      0.000u      0.000s      0.002w     43 calls
HF: DIIS                            :      0.433u      0.050s      0.287w     41 calls
HF: Form C                          :      0.133u      0.000s      0.113w     41 calls
Grad: V T Perturb                   :      0.267u      0.000s      0.163w      4 calls
Grad: S                             :      0.033u      0.000s      0.016w      4 calls
Grad: JK                            :     13.600u      0.617s      8.573w      4 calls
| JKGrad: Amn                       :      3.583u      0.300s      2.334w      4 calls
| | Libint2ERI::Libint2ERI          :      0.517u      0.000s      0.304w      4 calls
| JKGrad: Awmn                      :      0.000u      0.000s      0.000w      4 calls
| JKGrad: AB                        :      0.867u      0.017s      0.533w      4 calls
| | Libint2ERI::Libint2ERI          :      0.000u      0.000s      0.000w      4 calls
| JKGrad: UV                        :      0.133u      0.017s      0.081w      4 calls
| JKGrad: ABx                       :      0.183u      0.017s      0.121w      4 calls
| | Libint2ERI::Libint2ERI          :      0.000u      0.000s      0.000w      4 calls
| JKGrad: Amnx                      :      8.833u      0.250s      5.466w      4 calls
| | Libint2ERI::Libint2ERI          :      0.400u      0.000s      0.236w      4 calls
Grad: XC                            :      0.000u      0.000s      0.000w      4 calls
SAPT: Dimer SCF                     :     30.800u      2.200s     19.819w      2 calls
| Libint2ERI::Libint2ERI            :      0.500u      0.000s      0.321w      4 calls
| JK: (A|mn)                        :      3.783u      0.267s      2.425w      2 calls
| JK: (A|Q)^-1/2                    :      0.733u      0.000s      0.441w      2 calls
| | Libint2ERI::Libint2ERI          :      0.000u      0.000s      0.000w      2 calls
| JK: (Q|mn)                        :      2.633u      0.183s      1.686w      2 calls
| HF: Form core H                   :      0.117u      0.017s      0.078w      2 calls
| HF: Form S/X                      :      0.050u      0.000s      0.022w      2 calls
| HF: Guess                         :      0.283u      0.017s      0.195w      2 calls
| | SAD Guess                       :      0.283u      0.017s      0.190w      2 calls
| HF: Form G                        :     20.000u      1.083s     12.590w     26 calls
| | JK: D                           :      0.000u      0.000s      0.003w     26 calls
| | JK: USO2AO                      :      0.000u      0.000s      0.000w     26 calls
| | JK: JK                          :     20.000u      1.083s     12.582w     26 calls
| | | JK: J                         :      0.933u      0.033s      0.553w     26 calls
| | | | JK: J1                      :      0.433u      0.033s      0.257w     26 calls
| | | | JK: J2                      :      0.483u      0.000s      0.290w     26 calls
| | | JK: K                         :     19.033u      0.917s     11.938w     26 calls
| | | | JK: K1                      :     16.367u      0.917s     10.340w     26 calls
| | | | JK: K2                      :      2.667u      0.000s      1.597w     26 calls
| | JK: AO2USO                      :      0.000u      0.000s      0.000w     26 calls
| HF: Form F                        :      0.000u      0.000s      0.002w     26 calls
| HF: Form D                        :      0.000u      0.000s      0.003w     26 calls
| HF: DIIS                          :      0.250u      0.033s      0.203w     24 calls
| HF: Form C                        :      0.333u      0.000s      0.215w     24 calls
SAPT: Monomer A SCF                 :     16.017u      0.383s      9.838w      2 calls
| Libint2ERI::Libint2ERI            :      0.450u      0.000s      0.273w      4 calls
| HF: Form core H                   :      0.117u      0.000s      0.073w      2 calls
| HF: Form S/X                      :      0.017u      0.000s      0.020w      2 calls
| HF: Guess                         :      0.200u      0.017s      0.125w      2 calls
| | SAD Guess                       :      0.183u      0.017s      0.120w      2 calls
| HF: Form G                        :     12.783u      0.000s      7.703w     20 calls
| | JK: D                           :      0.000u      0.000s      0.002w     20 calls
| | JK: USO2AO                      :      0.000u      0.000s      0.000w     20 calls
| | JK: JK                          :     12.767u      0.000s      7.696w     20 calls
| | | JK: J                         :      0.683u      0.000s      0.426w     20 calls
| | | | JK: J1                      :      0.317u      0.000s      0.199w     20 calls
| | | | JK: J2                      :      0.367u      0.000s      0.222w     20 calls
| | | JK: K                         :     12.050u      0.000s      7.247w     20 calls
| | | | JK: K1                      :     11.350u      0.000s      6.809w     20 calls
| | | | JK: K2                      :      0.700u      0.000s      0.438w     20 calls
| | JK: AO2USO                      :      0.000u      0.000s      0.000w     20 calls
| HF: Form F                        :      0.000u      0.000s      0.002w     20 calls
| HF: Form D                        :      0.000u      0.000s      0.001w     20 calls
| HF: DIIS                          :      0.167u      0.067s      0.137w     18 calls
| HF: Form C                        :      0.283u      0.000s      0.155w     18 calls
SAPT: Monomer B SCF                 :     20.450u      0.500s     12.584w      2 calls
| Libint2ERI::Libint2ERI            :      0.583u      0.000s      0.367w      4 calls
| HF: Form core H                   :      0.133u      0.017s      0.071w      2 calls
| HF: Form S/X                      :      0.033u      0.000s      0.017w      2 calls
| HF: Guess                         :      0.300u      0.000s      0.185w      2 calls
| | SAD Guess                       :      0.300u      0.000s      0.179w      2 calls
| HF: Form G                        :     16.750u      0.067s     10.096w     24 calls
| | JK: D                           :      0.000u      0.000s      0.002w     24 calls
| | JK: USO2AO                      :      0.000u      0.000s      0.000w     24 calls
| | JK: JK                          :     16.750u      0.067s     10.089w     24 calls
| | | JK: J                         :      0.833u      0.000s      0.520w     24 calls
| | | | JK: J1                      :      0.417u      0.000s      0.241w     24 calls
| | | | JK: J2                      :      0.417u      0.000s      0.273w     24 calls
| | | JK: K                         :     15.833u      0.067s      9.529w     24 calls
| | | | JK: K1                      :     14.333u      0.067s      8.625w     24 calls
| | | | JK: K2                      :      1.500u      0.000s      0.903w     24 calls
| | JK: AO2USO                      :      0.000u      0.000s      0.000w     24 calls
| HF: Form F                        :      0.017u      0.000s      0.002w     24 calls
| HF: Form D                        :      0.033u      0.000s      0.002w     24 calls
[...]
| DFH: AO Construction              :     23.400u      0.900s     14.558w     29 calls
| DFH: AO-Met. Contraction          :     12.367u      1.750s      8.454w     29 calls
HF: Form core H                     :      0.950u      0.083s      0.783w     29 calls
HF: Form S/X                        :      0.200u      0.000s      0.113w     29 calls
HF: Guess                           :      0.600u      0.017s      0.378w     29 calls
| SAD Guess                         :      0.600u      0.017s      0.368w      4 calls
HF: Form G                          :     31.117u      0.083s     18.712w    328 calls
| JK: D                             :      0.017u      0.000s      0.020w    328 calls
| JK: USO2AO                        :      0.000u      0.000s      0.001w    328 calls
| JK: JK                            :     31.100u      0.083s     18.652w    328 calls
| | DFH: compute_JK()               :     31.083u      0.083s     18.642w    328 calls
| | | DFH: Grabbing AOs             :      0.000u      0.000s      0.001w    328 calls
| | | DFH: compute_J                :      4.683u      0.000s      2.843w    328 calls
| | | DFH: compute_K                :     25.700u      0.000s     15.347w    328 calls
| JK: AO2USO                        :      0.000u      0.000s      0.001w    328 calls
HF: Form F                          :      0.033u      0.000s      0.016w    328 calls
HF: Form D                          :      0.017u      0.000s      0.014w    328 calls
HF: DIIS                            :      2.267u      0.417s      1.710w    324 calls
HF: Form C                          :      1.767u      0.000s      0.989w    324 calls
Grad: V T Perturb                   :      1.417u      0.000s      0.856w     27 calls
Grad: S                             :      0.183u      0.000s      0.079w     27 calls
Grad: JK                            :    106.600u      4.767s     67.027w     27 calls
| JKGrad: Amn                       :     27.650u      2.133s     17.890w     27 calls
| | Libint2ERI::Libint2ERI          :      2.867u      0.000s      1.738w     27 calls
| JKGrad: Awmn                      :      0.000u      0.000s      0.000w     27 calls
| JKGrad: AB                        :      6.983u      0.183s      4.286w     27 calls
| | Libint2ERI::Libint2ERI          :      0.000u      0.000s      0.003w     27 calls
| JKGrad: UV                        :      0.800u      0.250s      0.618w     27 calls
| JKGrad: ABx                       :      1.467u      0.017s      0.904w     27 calls
| | Libint2ERI::Libint2ERI          :      0.000u      0.000s      0.004w     27 calls
| JKGrad: Amnx                      :     69.633u      2.117s     43.037w     27 calls
| | Libint2ERI::Libint2ERI          :      2.850u      0.000s      1.698w     27 calls
Grad: XC                            :      0.000u      0.000s      0.000w     27 calls

**************************************************************************************

Host: laptop

Timers On : Fri Oct 13 19:45:53 2023
Timers Off: Fri Oct 13 19:47:40 2023

Wall Time:      106.74 seconds

                                                       Time (seconds)
Module                                       User      System        Wall        Calls
DFH: sparsity prep                  :      3.617u      0.017s      2.165w     20 calls
Libint2ERI::Libint2ERI              :      8.950u      0.017s      5.348w    136 calls
DFH: initialize()                   :     33.617u      2.167s     21.476w     20 calls
DFH: AO Construction                :     17.600u      0.467s     10.850w     20 calls
DFH: AO-Met. Contraction            :      9.000u      1.317s      6.197w     20 calls
HF: Form core H                     :      0.717u      0.000s      0.556w     20 calls
HF: Form S/X                        :      0.117u      0.000s      0.075w     20 calls
HF: Guess                           :      0.367u      0.017s      0.228w     20 calls
SAD Guess                           :      0.350u      0.017s      0.221w      2 calls
HF: Form G                          :     22.617u      0.067s     13.467w    234 calls
JK: D                               :      0.017u      0.000s      0.015w    234 calls
JK: USO2AO                          :      0.000u      0.000s      0.001w    234 calls
JK: JK                              :     22.517u      0.067s     13.424w    234 calls
DFH: compute_JK()                   :     22.483u      0.067s     13.417w    234 calls
DFH: Grabbing AOs                   :      0.000u      0.000s      0.001w    234 calls
DFH: compute_J                      :      3.517u      0.017s      2.118w    234 calls
DFH: compute_K                      :     18.433u      0.000s     10.983w    234 calls
JK: AO2USO                          :      0.000u      0.000s      0.000w    234 calls
HF: Form F                          :      0.017u      0.000s      0.011w    234 calls
HF: Form D                          :      0.050u      0.000s      0.010w    234 calls
HF: DIIS                            :      1.833u      0.317s      1.298w    232 calls
HF: Form C                          :      1.200u      0.017s      0.731w    232 calls
Grad: V T Perturb                   :      1.033u      0.000s      0.615w     19 calls
Grad: S                             :      0.083u      0.000s      0.059w     19 calls
Grad: JK                            :     78.033u      3.467s     49.032w     19 calls
JKGrad: Amn                         :     21.067u      1.600s     13.581w     19 calls
JKGrad: Awmn                        :      0.000u      0.000s      0.000w     19 calls
JKGrad: AB                          :      5.167u      0.133s      3.198w     19 calls
JKGrad: UV                          :      0.617u      0.183s      0.452w     19 calls
JKGrad: ABx                         :      1.067u      0.017s      0.651w     19 calls
JKGrad: Amnx                        :     50.067u      1.483s     30.941w     19 calls
Grad: XC                            :      0.000u      0.000s      0.000w     19 calls

--------------------------------------------------------------------------------------
DFH: sparsity prep                  :      3.617u      0.017s      2.165w     20 calls
| Libint2ERI::Libint2ERI            :      2.350u      0.017s      1.396w     20 calls
DFH: initialize()                   :     33.617u      2.167s     21.476w     20 calls
| Libint2ERI::Libint2ERI            :      2.233u      0.000s      1.354w     40 calls
| DFH: AO Construction              :     17.600u      0.467s     10.850w     20 calls
| DFH: AO-Met. Contraction          :      9.000u      1.317s      6.197w     20 calls
HF: Form core H                     :      0.717u      0.000s      0.556w     20 calls
HF: Form S/X                        :      0.117u      0.000s      0.075w     20 calls
HF: Guess                           :      0.367u      0.017s      0.228w     20 calls
| SAD Guess                         :      0.350u      0.017s      0.221w      2 calls
HF: Form G                          :     22.617u      0.067s     13.467w    234 calls
| JK: D                             :      0.017u      0.000s      0.015w    234 calls
| JK: USO2AO                        :      0.000u      0.000s      0.001w    234 calls
| JK: JK                            :     22.517u      0.067s     13.424w    234 calls
| | DFH: compute_JK()               :     22.483u      0.067s     13.417w    234 calls
| | | DFH: Grabbing AOs             :      0.000u      0.000s      0.001w    234 calls
| | | DFH: compute_J                :      3.517u      0.017s      2.118w    234 calls
| | | DFH: compute_K                :     18.433u      0.000s     10.983w    234 calls
| JK: AO2USO                        :      0.000u      0.000s      0.000w    234 calls
HF: Form F                          :      0.017u      0.000s      0.011w    234 calls
HF: Form D                          :      0.050u      0.000s      0.010w    234 calls
HF: DIIS                            :      1.833u      0.317s      1.298w    232 calls
HF: Form C                          :      1.200u      0.017s      0.731w    232 calls
Grad: V T Perturb                   :      1.033u      0.000s      0.615w     19 calls
Grad: S                             :      0.083u      0.000s      0.059w     19 calls
Grad: JK                            :     78.033u      3.467s     49.032w     19 calls
| JKGrad: Amn                       :     21.067u      1.600s     13.581w     19 calls
| | Libint2ERI::Libint2ERI          :      2.183u      0.000s      1.310w     19 calls
| JKGrad: Awmn                      :      0.000u      0.000s      0.000w     19 calls
| JKGrad: AB                        :      5.167u      0.133s      3.198w     19 calls
| | Libint2ERI::Libint2ERI          :      0.000u      0.000s      0.003w     19 calls
| JKGrad: UV                        :      0.617u      0.183s      0.452w     19 calls
| JKGrad: ABx                       :      1.067u      0.017s      0.651w     19 calls
| | Libint2ERI::Libint2ERI          :      0.017u      0.000s      0.003w     19 calls
| JKGrad: Amnx                      :     50.067u      1.483s     30.941w     19 calls
| | Libint2ERI::Libint2ERI          :      2.167u      0.000s      1.282w     19 calls
Grad: XC                            :      0.000u      0.000s      0.000w     19 calls

**************************************************************************************

Host: laptop

Timers On : Fri Oct 13 19:47:44 2023
Timers Off: Fri Oct 13 19:49:58 2023

Wall Time:      134.00 seconds

                                                       Time (seconds)
Module                                       User      System        Wall        Calls
DFH: sparsity prep                  :      4.517u      0.000s      2.663w     27 calls
Libint2ERI::Libint2ERI              :     11.117u      0.017s      6.691w    185 calls
DFH: initialize()                   :     41.717u      2.683s     26.668w     27 calls
DFH: AO Construction                :     21.667u      0.633s     13.390w     27 calls
DFH: AO-Met. Contraction            :     11.200u      1.550s      7.695w     27 calls
HF: Form core H                     :      0.883u      0.017s      0.725w     27 calls
HF: Form S/X                        :      0.233u      0.000s      0.100w     27 calls
HF: Guess                           :      0.283u      0.000s      0.177w     27 calls
SAD Guess                           :      0.283u      0.000s      0.170w      2 calls
HF: Form G                          :     27.783u      0.083s     16.815w    306 calls
JK: D                               :      0.033u      0.000s      0.019w    306 calls
JK: USO2AO                          :      0.017u      0.000s      0.001w    306 calls
JK: JK                              :     27.700u      0.083s     16.759w    306 calls
DFH: compute_JK()                   :     27.667u      0.083s     16.751w    306 calls
DFH: Grabbing AOs                   :      0.000u      0.000s      0.001w    306 calls
DFH: compute_J                      :      4.517u      0.000s      2.577w    306 calls
DFH: compute_K                      :     22.717u      0.000s     13.769w    306 calls
JK: AO2USO                          :      0.000u      0.000s      0.001w    306 calls
HF: Form F                          :      0.000u      0.000s      0.015w    306 calls
HF: Form D                          :      0.000u      0.000s      0.013w    306 calls
HF: DIIS                            :      2.200u      0.467s      1.516w    304 calls
HF: Form C                          :      1.650u      0.000s      0.933w    304 calls
Grad: V T Perturb                   :      1.367u      0.000s      0.810w     26 calls
Grad: S                             :      0.100u      0.000s      0.079w     26 calls
Grad: JK                            :    100.233u      4.417s     62.956w     26 calls
JKGrad: Amn                         :     26.633u      1.950s     17.100w     26 calls
JKGrad: Awmn                        :      0.000u      0.000s      0.000w     26 calls
JKGrad: AB                          :      6.567u      0.150s      4.030w     26 calls
JKGrad: UV                          :      0.767u      0.250s      0.606w     26 calls
JKGrad: ABx                         :      1.400u      0.000s      0.841w     26 calls
JKGrad: Amnx                        :     64.767u      1.983s     40.099w     26 calls
Grad: XC                            :      0.000u      0.000s      0.000w     26 calls

--------------------------------------------------------------------------------------
DFH: sparsity prep                  :      4.517u      0.000s      2.663w     27 calls
| Libint2ERI::Libint2ERI            :      2.900u      0.000s      1.722w     27 calls
DFH: initialize()                   :     41.717u      2.683s     26.668w     27 calls
| Libint2ERI::Libint2ERI            :      2.783u      0.000s      1.678w     54 calls
| DFH: AO Construction              :     21.667u      0.633s     13.390w     27 calls
| DFH: AO-Met. Contraction          :     11.200u      1.550s      7.695w     27 calls
HF: Form core H                     :      0.883u      0.017s      0.725w     27 calls
HF: Form S/X                        :      0.233u      0.000s      0.100w     27 calls
HF: Guess                           :      0.283u      0.000s      0.177w     27 calls
| SAD Guess                         :      0.283u      0.000s      0.170w      2 calls
HF: Form G                          :     27.783u      0.083s     16.815w    306 calls
| JK: D                             :      0.033u      0.000s      0.019w    306 calls
| JK: USO2AO                        :      0.017u      0.000s      0.001w    306 calls
| JK: JK                            :     27.700u      0.083s     16.759w    306 calls
| | DFH: compute_JK()               :     27.667u      0.083s     16.751w    306 calls
| | | DFH: Grabbing AOs             :      0.000u      0.000s      0.001w    306 calls
| | | DFH: compute_J                :      4.517u      0.000s      2.577w    306 calls
| | | DFH: compute_K                :     22.717u      0.000s     13.769w    306 calls
| JK: AO2USO                        :      0.000u      0.000s      0.001w    306 calls
HF: Form F                          :      0.000u      0.000s      0.015w    306 calls
HF: Form D                          :      0.000u      0.000s      0.013w    306 calls
HF: DIIS                            :      2.200u      0.467s      1.516w    304 calls
HF: Form C                          :      1.650u      0.000s      0.933w    304 calls
Grad: V T Perturb                   :      1.367u      0.000s      0.810w     26 calls
Grad: S                             :      0.100u      0.000s      0.079w     26 calls
Grad: JK                            :    100.233u      4.417s     62.956w     26 calls
| JKGrad: Amn                       :     26.633u      1.950s     17.100w     26 calls
| | Libint2ERI::Libint2ERI          :      2.717u      0.000s      1.645w     26 calls
| JKGrad: Awmn                      :      0.000u      0.000s      0.000w     26 calls
| JKGrad: AB                        :      6.567u      0.150s      4.030w     26 calls
| | Libint2ERI::Libint2ERI          :      0.000u      0.000s      0.003w     26 calls
| JKGrad: UV                        :      0.767u      0.250s      0.606w     26 calls
| JKGrad: ABx                       :      1.400u      0.000s      0.841w     26 calls
| | Libint2ERI::Libint2ERI          :      0.000u      0.000s      0.003w     26 calls
| JKGrad: Amnx                      :     64.767u      1.983s     40.099w     26 calls
| | Libint2ERI::Libint2ERI          :      2.717u      0.017s      1.639w     26 calls
Grad: XC                            :      0.000u      0.000s      0.000w     26 calls

**************************************************************************************

Host: laptop

Timers On : Fri Oct 13 19:50:45 2023
Timers Off: Fri Oct 13 19:50:46 2023

Wall Time:        0.70 seconds

                                                       Time (seconds)
Module                                       User      System        Wall        Calls

--------------------------------------------------------------------------------------

**************************************************************************************

Host: laptop

Timers On : Fri Oct 13 20:04:12 2023
Timers Off: Fri Oct 13 20:04:14 2023

Wall Time:        2.55 seconds

                                                       Time (seconds)
Module                                       User      System        Wall        Calls

--------------------------------------------------------------------------------------

**************************************************************************************

Host: laptop

Timers On : Fri Oct 13 20:04:39 2023
Timers Off: Fri Oct 13 20:04:40 2023

Wall Time:        1.86 seconds

                                                       Time (seconds)
Module                                       User      System        Wall        Calls

--------------------------------------------------------------------------------------

**************************************************************************************

Host: laptop

Timers On : Fri Oct 13 20:07:52 2023
Timers Off: Fri Oct 13 20:07:53 2023

Wall Time:        0.52 seconds

                                                       Time (seconds)
Module                                       User      System        Wall        Calls

--------------------------------------------------------------------------------------

**************************************************************************************

Host: laptop

Timers On : Fri Oct 13 20:08:22 2023
Timers Off: Fri Oct 13 20:08:23 2023

Wall Time:        0.48 seconds

                                                       Time (seconds)
Module                                       User      System        Wall        Calls

--------------------------------------------------------------------------------------

**************************************************************************************

Host: laptop

Timers On : Fri Oct 13 20:10:20 2023
Timers Off: Fri Oct 13 20:10:20 2023

Wall Time:        0.49 seconds

                                                       Time (seconds)
Module                                       User      System        Wall        Calls

--------------------------------------------------------------------------------------

**************************************************************************************

Host: laptop

Timers On : Fri Oct 13 20:10:51 2023
Timers Off: Fri Oct 13 20:10:52 2023

Wall Time:        0.73 seconds

                                                       Time (seconds)
Module                                       User      System        Wall        Calls

--------------------------------------------------------------------------------------

**************************************************************************************

Host: laptop

Timers On : Fri Oct 13 20:11:45 2023
Timers Off: Fri Oct 13 20:11:46 2023

Wall Time:        0.60 seconds

                                                       Time (seconds)
Module                                       User      System        Wall        Calls

--------------------------------------------------------------------------------------

**************************************************************************************

Host: laptop

Timers On : Fri Oct 13 20:12:39 2023
Timers Off: Fri Oct 13 20:12:40 2023

Wall Time:        0.82 seconds

                                                       Time (seconds)
Module                                       User      System        Wall        Calls

--------------------------------------------------------------------------------------

**************************************************************************************
